 Gaussian 16, Revision A.03,
 Gaussian 16:  EM64L-G16RevA.03 25-Dec-2016

 ----------------------------------------------------------------------
 #p opt b3lyp/def2TZVP freq scrf=(solvent=dichloromethane,smd) Empirica
 lDispersion=GD3BJ
 ----------------------------------------------------------------------

 -------------------
 Title Card Required
 -------------------
 Symbolic Z-matrix:
 Charge =  0 Multiplicity = 1

 SCF Done:  E(RB3LYP) =  -1311.17139076     A.U. after   13 cycles
 SCF Done:  E(RB3LYP) =  -1311.17139411     A.U. after    8 cycles
 SCF Done:  E(RB3LYP) =  -1311.17139527     A.U. after    8 cycles
 SCF Done:  E(RB3LYP) =  -1311.17139579     A.U. after    7 cycles
 SCF Done:  E(RB3LYP) =  -1311.17139600     A.U. after    7 cycles
 Optimization completed.
    -- Stationary point found.
 Normal termination of Gaussian 16 at Tue Sep 18 10:40:23 2018.

 --------------------------------------------------------------------
 #P Geom=AllCheck Guess=TCheck SCRF=Check GenChk RB3LYP/def2TZVP Freq
 --------------------------------------------------------------------

 Structure from the checkpoint file:  "01.chk"
 -------------------
 Title Card Required
 -------------------
 Charge =  0 Multiplicity = 1

                         Standard orientation:
 ---------------------------------------------------------------------
 Center     Atomic      Atomic             Coordinates (Angstroms)
 Number     Number       Type             X           Y           Z
 ---------------------------------------------------------------------
      1          6           0        2.960394    0.183610    1.111538
      2          6           0        2.449109    1.337812    0.596260
      3          6           0        1.817159    1.137914   -0.662743
      4          6           0        1.851006   -0.183092   -1.066962
      5          1           0        1.399106    1.929511   -1.267412
      6          1           0        1.529167   -0.593809   -2.010782
      7         16           0        2.680730   -1.165379    0.078552
      8          1           0        3.473880    0.046170    2.050454
      9         53           0       -0.953979    0.075864   -0.171121
     10         17           0       -3.277180   -0.229918    0.475194
     11          1           0        2.513123    2.294547    1.093458
 ---------------------------------------------------------------------

 SCF Done:  E(RB3LYP) =  -1311.17139600     A.U. after    1 cycles

 The electronic state is 1-A.
 Alpha  occ. eigenvalues -- -101.51174 -88.89783 -10.22036 -10.21092 -10.20064
 Alpha  occ. eigenvalues --  -10.18670  -9.44298  -7.97393  -7.20443  -7.19597
 Alpha  occ. eigenvalues --   -7.19596  -6.86575  -5.93625  -5.93258  -5.93060
 Alpha  occ. eigenvalues --   -4.89511  -4.87572  -4.87559  -1.94157  -1.93594
 Alpha  occ. eigenvalues --   -1.93584  -1.91960  -1.91959  -0.89710  -0.81205
 Alpha  occ. eigenvalues --   -0.75053  -0.74149  -0.68030  -0.57823  -0.56579
 Alpha  occ. eigenvalues --   -0.52824  -0.42671  -0.41667  -0.40854  -0.40062
 Alpha  occ. eigenvalues --   -0.37308  -0.35923  -0.33549  -0.33483  -0.27894
 Alpha  occ. eigenvalues --   -0.26402  -0.25861  -0.25016
 Alpha virt. eigenvalues --   -0.10965  -0.03693   0.01522   0.02944   0.06023
 Alpha virt. eigenvalues --    0.07806   0.09144   0.09651   0.11577   0.11967
 Alpha virt. eigenvalues --    0.14799   0.17552   0.17972   0.18159   0.18632

 Mulliken charges:
               1
     1  C   -0.137188
     2  C   -0.187037
     3  C   -0.158141
     4  C   -0.191709
     5  H    0.186170
     6  H    0.211784
     7  S    0.078032
     8  H    0.191472
     9  I    0.164861
    10  Cl  -0.321392
    11  H    0.163150
 Sum of Mulliken charges =  -0.00000

 Dipole moment (field-independent basis, Debye):
    X=              5.9692    Y=              1.2985    Z=             -0.8756  Tot=              6.1712
 Quadrupole moment (field-independent basis, Debye-Ang):
   XX=            -82.9130   YY=            -73.3230   ZZ=            -71.2718
   XY=              1.0231   XZ=              4.4479   YZ=              0.8151

  Exact polarizability: 250.841   5.257 135.207  -0.167   0.592 122.198
 Approx polarizability: 304.872   5.800 180.174  -7.849  -0.880 158.847

                      1                      2                      3
                      A                      A                      A
 Frequencies --    -48.7431               -51.1113                67.6510
 Red. masses --      9.8976                13.6962                 8.5662
 Frc consts  --      0.0139                 0.0211                 0.0231
 IR Inten    --      0.8472                 0.3798                 0.4130

                      4                      5                      6
                      A                      A                      A
 Frequencies --     89.9248               153.8501               298.1643
 Red. masses --     17.8676                 4.9767                28.6467
 Frc consts  --      0.0851                 0.0694                 1.5005
 IR Inten    --      7.8798                71.9601               191.2650

                      7                      8                      9
                      A                      A                      A
 Frequencies --    465.2793               581.7514               616.6650
 Red. masses --      4.9554                 3.1189                 9.6705
 Frc consts  --      0.6321                 0.6219                 2.1667
 IR Inten    --      7.2264                 1.7452                 3.5501

                     10                     11                     12
                      A                      A                      A
 Frequencies --    734.4221               744.3038               757.6275
 Red. masses --      1.3342                 3.8780                 1.1763
 Frc consts  --      0.4240                 1.2658                 0.3978
 IR Inten    --     51.4563                 2.6964               272.8138

                     13                     14                     15
                      A                      A                      A
 Frequencies --    838.7535               878.0516               908.0603
 Red. masses --      4.1408                 3.4026                 1.3210
 Frc consts  --      1.7163                 1.5456                 0.6418
 IR Inten    --     45.1337                 3.7090                 2.2418

                     16                     17                     18
                      A                      A                      A
 Frequencies --    939.7464              1056.2017              1095.7651
 Red. masses --      1.3521                 1.9535                 1.1441
 Frc consts  --      0.7035                 1.2839                 0.8094
 IR Inten    --      3.8331                 6.2028                30.4578

                     19                     20                     21
                      A                      A                      A
 Frequencies --   1107.5636              1278.4981              1386.8439
 Red. masses --      1.1319                 1.3869                 2.5001
 Frc consts  --      0.8181                 1.3357                 2.8331
 IR Inten    --      9.4203                26.4053                44.5657

                     22                     23                     24
                      A                      A                      A
 Frequencies --   1424.2790              1527.9372              3211.4435
 Red. masses --      3.8348                 4.2759                 1.0890
 Frc consts  --      4.5833                 5.8815                 6.6175
 IR Inten    --     72.0319                40.0428                 2.2197

                     25                     26                     27
                      A                      A                      A
 Frequencies --   3222.0611              3244.7734              3249.8216
 Red. masses --      1.0937                 1.0973                 1.0985
 Frc consts  --      6.6901                 6.8065                 6.8354
 IR Inten    --      3.5736                 8.5864                10.5351

 - Thermochemistry -
 -------------------
 Temperature   298.150 Kelvin.  Pressure   1.00000 Atm.
 Atom     1 has atomic number  6 and mass  12.00000

 Molecular mass:   245.87262 amu.
 Principal axes and moments of inertia in atomic units:
                           1         2         3
     Eigenvalues --   550.142163779.253863894.99038
           X            0.99995   0.00934   0.00421
           Y           -0.00955   0.99845   0.05487
           Z           -0.00369  -0.05490   0.99848
 This molecule is an asymmetric top.
 Rotational symmetry number  1.
 Warning -- assumption of classical behavior for rotation
           may cause significant error
 Rotational temperatures (Kelvin)      0.15744     0.02292     0.02224
 Rotational constants (GHZ):           3.28050     0.47754     0.46335
 Zero-point vibrational energy     179316.0 (Joules/Mol)
                                   42.85755 (Kcal/Mol)
 Warning -- explicit consideration of   9 degrees of freedom as
           vibrations may cause significant error
 Vibrational temperatures:     70.13    73.54    97.33   129.38   221.36
          (Kelvin)            428.99   669.43   837.01   887.24  1056.67
                             1070.89  1090.06  1206.78  1263.32  1306.50
                             1352.09  1519.64  1576.56  1593.54  1839.47
                             1995.36  2049.22  2198.36  4620.55  4635.83
                             4668.51  4675.77

 Zero-point correction=                           0.068298 (Hartree/Particle)
 Thermal correction to Energy=                    0.076607
 Thermal correction to Enthalpy=                  0.077552
 Thermal correction to Gibbs Free Energy=         0.031117
 Sum of electronic and zero-point Energies=          -1311.103098
 Sum of electronic and thermal Energies=             -1311.094789
 Sum of electronic and thermal Enthalpies=           -1311.093844
 Sum of electronic and thermal Free Energies=        -1311.140279

                     E (Thermal)             CV                S
                      KCal/Mol        Cal/Mol-Kelvin    Cal/Mol-Kelvin
 Total                   48.072             26.416             97.730
 Electronic               0.000              0.000              0.000
 Translational            0.889              2.981             42.400
 Rotational               0.889              2.981             30.472
 Vibrational             46.294             20.455             24.859
 Vibration     1          0.595              1.978              4.868
 Vibration     2          0.595              1.977              4.774
 Vibration     3          0.598              1.970              4.221
 Vibration     4          0.602              1.956              3.662
 Vibration     5          0.619              1.898              2.624
 Vibration     6          0.691              1.677              1.427
 Vibration     7          0.823              1.327              0.751
 Vibration     8          0.939              1.071              0.482
 Vibration     9          0.976              0.997              0.422

                           ! Non-Optimized Parameters !
 Normal termination of Gaussian 16 at Tue Sep 18 10:44:46 2018.
